TITLE = "Test run, step00100"
VARIABLES = "x" "y" "u" "v" "Vorticity" 
ZONE T="Rectangular zone"
I=199, J=199, K=1, ZONETYPE=Ordered
DATAPACKING=POINT
DT=(SINGLE SINGLE SINGLE SINGLE SINGLE )
-1.98000e+00 -1.98000e+00 1.00211e+00 -2.11476e-03 6.38076e-17 
-1.96000e+00 -1.98000e+00 1.00423e+00 -2.11667e-03 1.11210e-16 
-1.94000e+00 -1.98000e+00 1.00635e+00 -2.11985e-03 2.46162e-16 
-1.92000e+00 -1.98000e+00 1.00847e+00 -2.12430e-03 5.06414e-16 
-1.90000e+00 -1.98000e+00 1.01059e+00 -2.13002e-03 6.33987e-16 
-1.88000e+00 -1.98000e+00 1.01273e+00 -2.13700e-03 -1.53962e-16 
-1.86000e+00 -1.98000e+00 1.01487e+00 -2.14523e-03 1.96534e-16 
-1.84000e+00 -1.98000e+00 1.01701e+00 -2.15471e-03 1.42916e-16 
-1.82000e+00 -1.98000e+00 1.01917e+00 -2.16542e-03 6.34266e-16 
-1.80000e+00 -1.98000e+00 1.02134e+00 -2.17737e-03 4.30308e-16 
-1.78000e+00 -1.98000e+00 1.02353e+00 -2.19053e-03 2.83241e-16 
-1.76000e+00 -1.98000e+00 1.02572e+00 -2.20490e-03 2.15560e-16 
-1.74000e+00 -1.98000e+00 1.02794e+00 -2.22047e-03 3.48481e-16 
-1.72000e+00 -1.98000e+00 1.03016e+00 -2.23721e-03 1.90381e-16 
-1.70000e+00 -1.98000e+00 1.03241e+00 -2.25512e-03 9.84880e-17 
-1.68000e+00 -1.98000e+00 1.03467e+00 -2.27417e-03 6.46586e-18 
-1.66000e+00 -1.98000e+00 1.03696e+00 -2.29435e-03 3.13708e-16 
-1.64000e+00 -1.98000e+00 1.03926e+00 -2.31563e-03 3.47602e-16 
-1.62000e+00 -1.98000e+00 1.04159e+00 -2.33799e-03 7.46512e-16 
-1.60000e+00 -1.98000e+00 1.04394e+00 -2.36142e-03 7.36996e-16 
-1.58000e+00 -1.98000e+00 1.04631e+00 -2.38587e-03 9.41459e-16 
-1.56000e+00 -1.98000e+00 1.04871e+00 -2.41134e-03 1.05538e-15 
-1.54000e+00 -1.98000e+00 1.05113e+00 -2.43778e-03 1.15828e-15 
-1.52000e+00 -1.98000e+00 1.05358e+00 -2.46516e-03 1.17012e-15 
-1.50000e+00 -1.98000e+00 1.05606e+00 -2.49345e-03 1.16780e-15 
-1.48000e+00 -1.98000e+00 1.05857e+00 -2.52262e-03 1.10401e-15 
-1.46000e+00 -1.98000e+00 1.06110e+00 -2.55263e-03 7.39719e-16 
-1.44000e+00 -1.98000e+00 1.06367e+00 -2.58344e-03 8.04206e-16 
-1.42000e+00 -1.98000e+00 1.06627e+00 -2.61500e-03 6.86419e-16 
-1.40000e+00 -1.98000e+00 1.06890e+00 -2.64727e-03 7.65018e-16 
-1.38000e+00 -1.98000e+00 1.07156e+00 -2.68021e-03 8.11096e-16 
-1.36000e+00 -1.98000e+00 1.07426e+00 -2.71376e-03 9.66001e-16 
-1.34000e+00 -1.98000e+00 1.07699e+00 -2.74787e-03 9.87399e-16 
-1.32000e+00 -1.98000e+00 1.07976e+00 -2.78249e-03 6.77482e-16 
-1.30000e+00 -1.98000e+00 1.08256e+00 -2.81757e-03 6.46246e-16 
-1.28000e+00 -1.98000e+00 1.08539e+00 -2.85303e-03 3.13748e-16 
-1.26000e+00 -1.98000e+00 1.08826e+00 -2.88882e-03 2.46700e-16 
-1.24000e+00 -1.98000e+00 1.09117e+00 -2.92487e-03 6.06530e-16 
-1.22000e+00 -1.98000e+00 1.09411e+00 -2.96112e-03 6.72895e-16 
-1.20000e+00 -1.98000e+00 1.09709e+00 -2.99749e-03 8.29613e-16 
-1.18000e+00 -1.98000e+00 1.10011e+00 -3.03392e-03 1.06134e-15 
-1.16000e+00 -1.98000e+00 1.10316e+00 -3.07031e-03 1.07994e-15 
-1.14000e+00 -1.98000e+00 1.10625e+00 -3.10661e-03 1.20011e-15 
-1.12000e+00 -1.98000e+00 1.10937e+00 -3.14272e-03 1.15236e-15 
-1.10000e+00 -1.98000e+00 1.11253e+00 -3.17856e-03 1.11116e-15 
-1.08000e+00 -1.98000e+00 1.11573e+00 -3.21404e-03 1.06745e-15 
-1.06000e+00 -1.98000e+00 1.11896e+00 -3.24908e-03 1.26355e-15 
-1.04000e+00 -1.98000e+00 1.12223e+00 -3.28359e-03 1.45436e-15 
-1.02000e+00 -1.98000e+00 1.12553e+00 -3.31746e-03 1.22287e-15 
-1.00000e+00 -1.98000e+00 1.12886e+00 -3.35062e-03 1.00225e-15 
-9.80000e-01 -1.98000e+00 1.13223e+00 -3.38295e-03 6.58255e-16 
-9.60000e-01 -1.98000e+00 1.13563e+00 -3.41435e-03 6.16198e-16 
-9.40000e-01 -1.98000e+00 1.13906e+00 -3.44474e-03 4.19483e-16 
-9.20000e-01 -1.98000e+00 1.14252e+00 -3.47400e-03 6.33584e-16 
-9.00000e-01 -1.98000e+00 1.14601e+00 -3.50204e-03 4.85400e-16 
-8.80000e-01 -1.98000e+00 1.14953e+00 -3.52874e-03 6.32897e-16 
-8.60000e-01 -1.98000e+00 1.15307e+00 -3.55400e-03 5.26863e-16 
-8.40000e-01 -1.98000e+00 1.15664e+00 -3.57772e-03 6.57773e-16 
-8.20000e-01 -1.98000e+00 1.16023e+00 -3.59979e-03 4.66182e-16 
-8.00000e-01 -1.98000e+00 1.16384e+00 -3.62011e-03 3.33843e-16 
-7.80000e-01 -1.98000e+00 1.16747e+00 -3.63856e-03 2.68642e-16 
-7.60000e-01 -1.98000e+00 1.17112e+00 -3.65505e-03 -4.06978e-16 
-7.40000e-01 -1.98000e+00 1.17478e+00 -3.66947e-03 -1.75886e-16 
-7.20000e-01 -1.98000e+00 1.17846e+00 -3.68172e-03 2.50380e-16 
-7.00000e-01 -1.98000e+00 1.18215e+00 -3.69169e-03 3.70713e-16 
-6.80000e-01 -1.98000e+00 1.18584e+00 -3.69930e-03 -3.79786e-17 
-6.60000e-01 -1.98000e+00 1.18955e+00 -3.70443e-03 3.59112e-16 
-6.40000e-01 -1.98000e+00 1.19325e+00 -3.70700e-03 3.90902e-16 
-6.20000e-01 -1.98000e+00 1.19696e+00 -3.70691e-03 6.66978e-16 
-6.00000e-01 -1.98000e+00 1.20067e+00 -3.70409e-03 7.14178e-16 
-5.80000e-01 -1.98000e+00 1.20437e+00 -3.69844e-03 4.19074e-16 
-5.60000e-01 -1.98000e+00 1.20807e+00 -3.68989e-03 4.83046e-16 
-5.40000e-01 -1.98000e+00 1.21176e+00 -3.67835e-03 3.43017e-16 
-5.20000e-01 -1.98000e+00 1.21543e+00 -3.66377e-03 4.20842e-16 
-5.00000e-01 -1.98000e+00 1.21909e+00 -3.64607e-03 -9.85218e-17 
-4.80000e-01 -1.98000e+00 1.22273e+00 -3.62520e-03 1.78442e-16 
-4.60000e-01 -1.98000e+00 1.22634e+00 -3.60110e-03 7.11256e-16 
-4.40000e-01 -1.98000e+00 1.22993e+00 -3.57372e-03 1.08216e-15 
-4.20000e-01 -1.98000e+00 1.23349e+00 -3.54302e-03 9.00343e-16 
-4.00000e-01 -1.98000e+00 1.23702e+00 -3.50897e-03 4.31249e-16 
-3.80000e-01 -1.98000e+00 1.24051e+00 -3.47153e-03 2.05918e-16 
-3.60000e-01 -1.98000e+00 1.24397e+00 -3.43069e-03 -1.12819e-15 
-3.40000e-01 -1.98000e+00 1.24738e+00 -3.38642e-03 -1.08349e-15 
-3.20000e-01 -1.98000e+00 1.25074e+00 -3.33873e-03 -1.10103e-15 
-3.00000e-01 -1.98000e+00 1.25406e+00 -3.28760e-03 -8.73133e-16 
-2.80000e-01 -1.98000e+00 1.25732e+00 -3.23305e-03 -4.74649e-16 
-2.60000e-01 -1.98000e+00 1.26053e+00 -3.17509e-03 -4.43545e-16 
-2.40000e-01 -1.98000e+00 1.26368e+00 -3.11373e-03 2.55899e-17 
-2.20000e-01 -1.98000e+00 1.26676e+00 -3.04901e-03 -8.67054e-17 
-2.00000e-01 -1.98000e+00 1.26978e+00 -2.98095e-03 5.86408e-16 
-1.80000e-01 -1.98000e+00 1.27272e+00 -2.90960e-03 7.85603e-16 
-1.60000e-01 -1.98000e+00 1.27560e+00 -2.83501e-03 1.49124e-15 
-1.40000e-01 -1.98000e+00 1.27840e+00 -2.75723e-03 1.89811e-15 
-1.20000e-01 -1.98000e+00 1.28112e+00 -2.67631e-03 2.04326e-15 
-1.00000e-01 -1.98000e+00 1.28375e+00 -2.59233e-03 2.32148e-15 
-8.00000e-02 -1.98000e+00 1.28630e+00 -2.50536e-03 3.45387e-15 
-6.00000e-02 -1.98000e+00 1.28877e+00 -2.41548e-03 3.53946e-15 
-4.00000e-02 -1.98000e+00 1.29114e+00 -2.32276e-03 3.69158e-15 
-2.00000e-02 -1.98000e+00 1.29342e+00 -2.22730e-03 3.52264e-15 
0.00000e+00 -1.98000e+00 1.29560e+00 -2.12918e-03 3.27334e-15 
2.00000e-02 -1.98000e+00 1.29768e+00 -2.02851e-03 3.31192e-15 
4.00000e-02 -1.98000e+00 1.29965e+00 -1.92539e-03 3.17451e-15 
6.00000e-02 -1.98000e+00 1.30153e+00 -1.81991e-03 3.12922e-15 
8.00000e-02 -1.98000e+00 1.30330e+00 -1.71219e-03 3.11150e-15 
1.00000e-01 -1.98000e+00 1.30496e+00 -1.60234e-03 2.76966e-15 
1.20000e-01 -1.98000e+00 1.30650e+00 -1.49047e-03 2.54581e-15 
1.40000e-01 -1.98000e+00 1.30794e+00 -1.37669e-03 2.41975e-15 
1.60000e-01 -1.98000e+00 1.30926e+00 -1.26112e-03 2.18287e-15 
1.80000e-01 -1.98000e+00 1.31046e+00 -1.14389e-03 1.85119e-15 
2.00000e-01 -1.98000e+00 1.31155e+00 -1.02510e-03 1.41379e-15 
2.20000e-01 -1.98000e+00 1.31251e+00 -9.04886e-04 1.09036e-15 
2.40000e-01 -1.98000e+00 1.31336e+00 -7.83364e-04 1.33017e-15 
2.60000e-01 -1.98000e+00 1.31408e+00 -6.60656e-04 1.59083e-15 
2.80000e-01 -1.98000e+00 1.31468e+00 -5.36885e-04 1.92718e-15 
3.00000e-01 -1.98000e+00 1.31516e+00 -4.12171e-04 1.35294e-15 
3.20000e-01 -1.98000e+00 1.31551e+00 -2.86636e-04 1.02291e-15 
3.40000e-01 -1.98000e+00 1.31573e+00 -1.60401e-04 7.37339e-16 
3.60000e-01 -1.98000e+00 1.31583e+00 -3.35872e-05 6.75428e-16 
3.80000e-01 -1.98000e+00 1.31580e+00 9.36874e-05 1.11498e-15 
4.00000e-01 -1.98000e+00 1.31564e+00 2.21304e-04 1.23651e-15 
4.20000e-01 -1.98000e+00 1.31536e+00 3.49147e-04 1.33266e-15 
4.40000e-01 -1.98000e+00 1.31494e+00 4.77100e-04 9.38715e-16 
4.60000e-01 -1.98000e+00 1.31440e+00 6.05048e-04 1.34616e-15 
4.80000e-01 -1.98000e+00 1.31373e+00 7.32881e-04 9.31649e-16 
5.00000e-01 -1.98000e+00 1.31294e+00 8.60487e-04 9.08965e-16 
5.20000e-01 -1.98000e+00 1.31201e+00 9.87757e-04 9.30194e-16 
5.40000e-01 -1.98000e+00 1.31096e+00 1.11458e-03 8.87391e-16 
5.60000e-01 -1.98000e+00 1.30978e+00 1.24087e-03 9.95051e-16 
5.80000e-01 -1.98000e+00 1.30848e+00 1.36650e-03 7.86237e-16 
6.00000e-01 -1.98000e+00 1.30705e+00 1.49138e-03 7.77324e-16 
6.20000e-01 -1.98000e+00 1.30549e+00 1.61541e-03 3.59578e-16 
6.40000e-01 -1.98000e+00 1.30382e+00 1.73849e-03 3.46596e-16 
6.60000e-01 -1.98000e+00 1.30202e+00 1.86054e-03 2.67473e-16 
6.80000e-01 -1.98000e+00 1.30009e+00 1.98146e-03 -7.22095e-17 
7.00000e-01 -1.98000e+00 1.29805e+00 2.10116e-03 4.18459e-17 
7.20000e-01 -1.98000e+00 1.29589e+00 2.21956e-03 2.44374e-16 
7.40000e-01 -1.98000e+00 1.29361e+00 2.33657e-03 1.03509e-16 
7.60000e-01 -1.98000e+00 1.29122e+00 2.45212e-03 1.29322e-16 
7.80000e-01 -1.98000e+00 1.28871e+00 2.56612e-03 1.50557e-16 
8.00000e-01 -1.98000e+00 1.28608e+00 2.67850e-03 1.56132e-17 
8.20000e-01 -1.98000e+00 1.28335e+00 2.78919e-03 1.29918e-16 
8.40000e-01 -1.98000e+00 1.28050e+00 2.89812e-03 -2.59129e-16 
8.60000e-01 -1.98000e+00 1.27755e+00 3.00523e-03 -2.55488e-16 
8.80000e-01 -1.98000e+00 1.27449e+00 3.11045e-03 -1.32309e-16 
9.00000e-01 -1.98000e+00 1.27133e+00 3.21373e-03 2.70836e-16 
9.20000e-01 -1.98000e+00 1.26806e+00 3.31501e-03 -4.58353e-16 
9.40000e-01 -1.98000e+00 1.26469e+00 3.41425e-03 -1.84642e-16 
9.60000e-01 -1.98000e+00 1.26123e+00 3.51139e-03 -3.92334e-17 
9.80000e-01 -1.98000e+00 1.25767e+00 3.60639e-03 1.72420e-16 
1.00000e+00 -1.98000e+00 1.25401e+00 3.69921e-03 3.09178e-16 
1.02000e+00 -1.98000e+00 1.25027e+00 3.78982e-03 3.76038e-16 
1.04000e+00 -1.98000e+00 1.24643e+00 3.87818e-03 6.52191e-16 
1.06000e+00 -1.98000e+00 1.24251e+00 3.96427e-03 6.00501e-16 
1.08000e+00 -1.98000e+00 1.23850e+00 4.04806e-03 5.40030e-16 
1.10000e+00 -1.98000e+00 1.23441e+00 4.12953e-03 6.47625e-16 
1.12000e+00 -1.98000e+00 1.23024e+00 4.20867e-03 7.87710e-16 
1.14000e+00 -1.98000e+00 1.22599e+00 4.28547e-03 1.39222e-15 
1.16000e+00 -1.98000e+00 1.22167e+00 4.35991e-03 1.89903e-15 
1.18000e+00 -1.98000e+00 1.21727e+00 4.43200e-03 2.38857e-15 
1.20000e+00 -1.98000e+00 1.21280e+00 4.50174e-03 2.85437e-15 
1.22000e+00 -1.98000e+00 1.20826e+00 4.56912e-03 3.48134e-15 
1.24000e+00 -1.98000e+00 1.20366e+00 4.63416e-03 4.00205e-15 
1.26000e+00 -1.98000e+00 1.19899e+00 4.69688e-03 4.73189e-15 
1.28000e+00 -1.98000e+00 1.19426e+00 4.75727e-03 5.92713e-15 
1.30000e+00 -1.98000e+00 1.18948e+00 4.81537e-03 6.72129e-15 
1.32000e+00 -1.98000e+00 1.18463e+00 4.87120e-03 7.89713e-15 
1.34000e+00 -1.98000e+00 1.17973e+00 4.92477e-03 8.97302e-15 
1.36000e+00 -1.98000e+00 1.17478e+00 4.97612e-03 1.02576e-14 
1.38000e+00 -1.98000e+00 1.16978e+00 5.02528e-03 1.15669e-14 
1.40000e+00 -1.98000e+00 1.16473e+00 5.07228e-03 1.27921e-14 
1.42000e+00 -1.98000e+00 1.15963e+00 5.11716e-03 1.37656e-14 
1.44000e+00 -1.98000e+00 1.15449e+00 5.15995e-03 1.51813e-14 
1.46000e+00 -1.98000e+00 1.14931e+00 5.20070e-03 1.60264e-14 
1.48000e+00 -1.98000e+00 1.14409e+00 5.23944e-03 1.69744e-14 
1.50000e+00 -1.98000e+00 1.13883e+00 5.27622e-03 1.87074e-14 
1.52000e+00 -1.98000e+00 1.13353e+00 5.31108e-03 2.06088e-14 
1.54000e+00 -1.98000e+00 1.12820e+00 5.34407e-03 2.20183e-14 
1.56000e+00 -1.98000e+00 1.12284e+00 5.37522e-03 2.31262e-14 
1.58000e+00 -1.98000e+00 1.11745e+00 5.40459e-03 2.43234e-14 
1.60000e+00 -1.98000e+00 1.11203e+00 5.43223e-03 2.53275e-14 
1.62000e+00 -1.98000e+00 1.10659e+00 5.45816e-03 2.68445e-14 
1.64000e+00 -1.98000e+00 1.10111e+00 5.48246e-03 2.83612e-14 
1.66000e+00 -1.98000e+00 1.09562e+00 5.50514e-03 2.93539e-14 
1.68000e+00 -1.98000e+00 1.09010e+00 5.52627e-03 3.01596e-14 
1.70000e+00 -1.98000e+00 1.08456e+00 5.54588e-03 3.05191e-14 
1.72000e+00 -1.98000e+00 1.07901e+00 5.56401e-03 3.06736e-14 
1.74000e+00 -1.98000e+00 1.07343e+00 5.58070e-03 3.06073e-14 
1.76000e+00 -1.98000e+00 1.06785e+00 5.59600e-03 3.05877e-14 
1.78000e+00 -1.98000e+00 1.06224e+00 5.60993e-03 3.02601e-14 
1.80000e+00 -1.98000e+00 1.05662e+00 5.62253e-03 2.98659e-14 
1.82000e+00 -1.98000e+00 1.05100e+00 5.63383e-03 2.90606e-14 
1.84000e+00 -1.98000e+00 1.04536e+00 5.64386e-03 2.81889e-14 
1.86000e+00 -1.98000e+00 1.03971e+00 5.65265e-03 2.70358e-14 
1.88000e+00 -1.98000e+00 1.03405e+00 5.66022e-03 2.57607e-14 
1.90000e+00 -1.98000e+00 1.02838e+00 5.66659e-03 2.41332e-14 
1.92000e+00 -1.98000e+00 1.02271e+00 5.67177e-03 2.25693e-14 
1.94000e+00 -1.98000e+00 1.01704e+00 5.67579e-03 2.11919e-14 
1.96000e+00 -1.98000e+00 1.01136e+00 5.67865e-03 1.95663e-14 
1.98000e+00 -1.98000e+00 1.00568e+00 5.68037e-03 1.78400e-14 
-1.98000e+00 -1.96000e+00 1.00211e+00 -4.22825e-03 2.97220e-16 
-1.96000e+00 -1.96000e+00 1.00422e+00 -4.23207e-03 3.03511e-16 
-1.94000e+00 -1.96000e+00 1.00634e+00 -4.23844e-03 7.00633e-16 
-1.92000e+00 -1.96000e+00 1.00846e+00 -4.24734e-03 7.92886e-16 
-1.90000e+00 -1.96000e+00 1.01058e+00 -4.25878e-03 7.57867e-16 
-1.88000e+00 -1.96000e+00 1.01271e+00 -4.27274e-03 -3.28867e-16 
-1.86000e+00 -1.96000e+00 1.01485e+00 -4.28921e-03 3.73231e-16 
-1.84000e+00 -1.96000e+00 1.01700e+00 -4.30817e-03 4.09149e-16 
-1.82000e+00 -1.96000e+00 1.01916e+00 -4.32961e-03 1.11363e-15 
-1.80000e+00 -1.96000e+00 1.02133e+00 -4.35352e-03 7.72074e-16 
-1.78000e+00 -1.96000e+00 1.02351e+00 -4.37986e-03 8.92718e-16 
-1.76000e+00 -1.96000e+00 1.02570e+00 -4.40861e-03 8.16374e-16 
-1.74000e+00 -1.96000e+00 1.02791e+00 -4.43976e-03 1.01605e-15 
-1.72000e+00 -1.96000e+00 1.03014e+00 -4.47326e-03 6.34507e-16 
-1.70000e+00 -1.96000e+00 1.03238e+00 -4.50909e-03 4.15427e-16 
-1.68000e+00 -1.96000e+00 1.03464e+00 -4.54721e-03 3.42349e-16 
-1.66000e+00 -1.96000e+00 1.03693e+00 -4.58759e-03 8.93538e-16 
-1.64000e+00 -1.96000e+00 1.03923e+00 -4.63017e-03 9.34104e-16 
-1.62000e+00 -1.96000e+00 1.04155e+00 -4.67493e-03 1.30909e-15 
-1.60000e+00 -1.96000e+00 1.04390e+00 -4.72180e-03 1.26007e-15 
-1.58000e+00 -1.96000e+00 1.04627e+00 -4.77074e-03 1.63641e-15 
-1.56000e+00 -1.96000e+00 1.04867e+00 -4.82170e-03 1.68672e-15 
-1.54000e+00 -1.96000e+00 1.05109e+00 -4.87461e-03 1.92033e-15 
-1.52000e+00 -1.96000e+00 1.05354e+00 -4.92941e-03 1.98892e-15 
-1.50000e+00 -1.96000e+00 1.05602e+00 -4.98603e-03 2.03954e-15 
-1.48000e+00 -1.96000e+00 1.05852e+00 -5.04441e-03 1.83909e-15 
-1.46000e+00 -1.96000e+00 1.06106e+00 -5.10447e-03 1.10297e-15 
-1.44000e+00 -1.96000e+00 1.06362e+00 -5.16612e-03 1.31222e-15 
-1.42000e+00 -1.96000e+00 1.06622e+00 -5.22929e-03 1.19625e-15 
-1.40000e+00 -1.96000e+00 1.06885e+00 -5.29388e-03 1.22436e-15 
-1.38000e+00 -1.96000e+00 1.07151e+00 -5.35980e-03 1.31822e-15 
-1.36000e+00 -1.96000e+00 1.07421e+00 -5.42696e-03 1.56652e-15 
-1.34000e+00 -1.96000e+00 1.07694e+00 -5.49524e-03 1.46753e-15 
-1.32000e+00 -1.96000e+00 1.07970e+00 -5.56454e-03 1.29551e-15 
-1.30000e+00 -1.96000e+00 1.08250e+00 -5.63474e-03 1.14937e-15 
-1.28000e+00 -1.96000e+00 1.08534e+00 -5.70573e-03 5.70039e-16 
-1.26000e+00 -1.96000e+00 1.08821e+00 -5.77737e-03 6.38528e-16 
-1.24000e+00 -1.96000e+00 1.09111e+00 -5.84955e-03 1.33822e-15 
-1.22000e+00 -1.96000e+00 1.09406e+00 -5.92212e-03 1.45085e-15 
-1.20000e+00 -1.96000e+00 1.09704e+00 -5.99493e-03 1.92082e-15 
-1.18000e+00 -1.96000e+00 1.10005e+00 -6.06786e-03 2.14010e-15 
-1.16000e+00 -1.96000e+00 1.10310e+00 -6.14073e-03 2.06957e-15 
-1.14000e+00 -1.96000e+00 1.10619e+00 -6.21340e-03 2.29508e-15 
-1.12000e+00 -1.96000e+00 1.10932e+00 -6.28571e-03 2.31739e-15 
-1.10000e+00 -1.96000e+00 1.11248e+00 -6.35747e-03 2.46230e-15 
-1.08000e+00 -1.96000e+00 1.11568e+00 -6.42853e-03 2.40544e-15 
-1.06000e+00 -1.96000e+00 1.11891e+00 -6.49870e-03 2.32975e-15 
-1.04000e+00 -1.96000e+00 1.12218e+00 -6.56781e-03 2.59495e-15 
-1.02000e+00 -1.96000e+00 1.12548e+00 -6.63565e-03 1.98034e-15 
-1.00000e+00 -1.96000e+00 1.12881e+00 -6.70205e-03 1.67950e-15 
-9.80000e-01 -1.96000e+00 1.13218e+00 -6.76681e-03 1.30724e-15 
-9.60000e-01 -1.96000e+00 1.13558e+00 -6.82973e-03 1.43811e-15 
-9.40000e-01 -1.96000e+00 1.13902e+00 -6.89060e-03 1.17216e-15 
-9.20000e-01 -1.96000e+00 1.14248e+00 -6.94923e-03 1.37811e-15 
-9.00000e-01 -1.96000e+00 1.14597e+00 -7.00540e-03 9.61119e-16 
-8.80000e-01 -1.96000e+00 1.14949e+00 -7.05891e-03 1.19700e-15 
-8.60000e-01 -1.96000e+00 1.15303e+00 -7.10955e-03 1.08241e-15 
-8.40000e-01 -1.96000e+00 1.15660e+00 -7.15709e-03 1.19368e-15 
-8.20000e-01 -1.96000e+00 1.16019e+00 -7.20134e-03 8.67483e-16 
-8.00000e-01 -1.96000e+00 1.16381e+00 -7.24208e-03 6.72330e-16 
-7.80000e-01 -1.96000e+00 1.16744e+00 -7.27909e-03 5.00261e-16 
-7.60000e-01 -1.96000e+00 1.17109e+00 -7.31218e-03 -3.72219e-16 
-7.40000e-01 -1.96000e+00 1.17476e+00 -7.34112e-03 -2.95784e-17 
-7.20000e-01 -1.96000e+00 1.17844e+00 -7.36571e-03 4.47789e-16 
-7.00000e-01 -1.96000e+00 1.18213e+00 -7.38576e-03 3.72845e-16 
-6.80000e-01 -1.96000e+00 1.18583e+00 -7.40106e-03 -4.14733e-16 
-6.60000e-01 -1.96000e+00 1.18954e+00 -7.41142e-03 7.01832e-17 
-6.40000e-01 -1.96000e+00 1.19325e+00 -7.41665e-03 2.23540e-16 
-6.20000e-01 -1.96000e+00 1.19697e+00 -7.41657e-03 9.30678e-16 
-6.00000e-01 -1.96000e+00 1.20068e+00 -7.41100e-03 1.20223e-15 
-5.80000e-01 -1.96000e+00 1.20438e+00 -7.39978e-03 8.56524e-16 
-5.60000e-01 -1.96000e+00 1.20809e+00 -7.38275e-03 1.04783e-15 
-5.40000e-01 -1.96000e+00 1.21178e+00 -7.35975e-03 1.17606e-15 
-5.20000e-01 -1.96000e+00 1.21545e+00 -7.33065e-03 1.40279e-15 
-5.00000e-01 -1.96000e+00 1.21912e+00 -7.29532e-03 9.02041e-16 
-4.80000e-01 -1.96000e+00 1.22276e+00 -7.25362e-03 9.35023e-16 
-4.60000e-01 -1.96000e+00 1.22638e+00 -7.20547e-03 1.73791e-15 
-4.40000e-01 -1.96000e+00 1.22997e+00 -7.15075e-03 9.75990e-16 
-4.20000e-01 -1.96000e+00 1.23354e+00 -7.08939e-03 1.28025e-15 
-4.00000e-01 -1.96000e+00 1.23707e+00 -7.02132e-03 7.58412e-16 
-3.80000e-01 -1.96000e+00 1.24057e+00 -6.94647e-03 1.10159e-15 
-3.60000e-01 -1.96000e+00 1.24403e+00 -6.86480e-03 5.50849e-16 
-3.40000e-01 -1.96000e+00 1.24745e+00 -6.77628e-03 6.80046e-16 
-3.20000e-01 -1.96000e+00 1.25082e+00 -6.68089e-03 1.25868e-15 
-3.00000e-01 -1.96000e+00 1.25414e+00 -6.57864e-03 2.18131e-15 
-2.80000e-01 -1.96000e+00 1.25741e+00 -6.46952e-03 1.81254e-15 
-2.60000e-01 -1.96000e+00 1.26062e+00 -6.35357e-03 1.20907e-15 
-2.40000e-01 -1.96000e+00 1.26377e+00 -6.23083e-03 2.80936e-15 
-2.20000e-01 -1.96000e+00 1.26686e+00 -6.10135e-03 3.47600e-15 
-2.00000e-01 -1.96000e+00 1.26988e+00 -5.96519e-03 4.90324e-15 
-1.80000e-01 -1.96000e+00 1.27283e+00 -5.82245e-03 4.45969e-15 
-1.60000e-01 -1.96000e+00 1.27571e+00 -5.67321e-03 4.00478e-15 
-1.40000e-01 -1.96000e+00 1.27852e+00 -5.51758e-03 4.34955e-15 
-1.20000e-01 -1.96000e+00 1.28124e+00 -5.35569e-03 4.21802e-15 
-1.00000e-01 -1.96000e+00 1.28388e+00 -5.18766e-03 4.72228e-15 
-8.00000e-02 -1.96000e+00 1.28644e+00 -5.01364e-03 5.71467e-15 
-6.00000e-02 -1.96000e+00 1.28890e+00 -4.83379e-03 6.16365e-15 
-4.00000e-02 -1.96000e+00 1.29128e+00 -4.64826e-03 6.14124e-15 
-2.00000e-02 -1.96000e+00 1.29356e+00 -4.45725e-03 6.17592e-15 
0.00000e+00 -1.96000e+00 1.29574e+00 -4.26092e-03 5.32203e-15 
2.00000e-02 -1.96000e+00 1.29783e+00 -4.05948e-03 5.06976e-15 
4.00000e-02 -1.96000e+00 1.29981e+00 -3.85312e-03 5.26305e-15 
6.00000e-02 -1.96000e+00 1.30169e+00 -3.64206e-03 5.28313e-15 
8.00000e-02 -1.96000e+00 1.30346e+00 -3.42652e-03 4.90383e-15 
1.00000e-01 -1.96000e+00 1.30512e+00 -3.20670e-03 4.33122e-15 
1.20000e-01 -1.96000e+00 1.30667e+00 -2.98284e-03 3.91690e-15 
1.40000e-01 -1.96000e+00 1.30811e+00 -2.75516e-03 4.31097e-15 
1.60000e-01 -1.96000e+00 1.30943e+00 -2.52391e-03 3.41955e-15 
1.80000e-01 -1.96000e+00 1.31064e+00 -2.28932e-03 2.55254e-15 
2.00000e-01 -1.96000e+00 1.31173e+00 -2.05163e-03 1.93883e-15 
2.20000e-01 -1.96000e+00 1.31270e+00 -1.81108e-03 1.36491e-15 
2.40000e-01 -1.96000e+00 1.31354e+00 -1.56791e-03 1.68973e-15 
2.60000e-01 -1.96000e+00 1.31427e+00 -1.32238e-03 1.78929e-15 
2.80000e-01 -1.96000e+00 1.31487e+00 -1.07471e-03 2.73002e-15 
3.00000e-01 -1.96000e+00 1.31534e+00 -8.25162e-04 1.86262e-15 
3.20000e-01 -1.96000e+00 1.31570e+00 -5.73972e-04 1.29466e-15 
3.40000e-01 -1.96000e+00 1.31592e+00 -3.21383e-04 9.87824e-16 
3.60000e-01 -1.96000e+00 1.31602e+00 -6.76350e-05 7.39549e-16 
3.80000e-01 -1.96000e+00 1.31599e+00 1.87032e-04 1.45550e-15 
4.00000e-01 -1.96000e+00 1.31583e+00 4.42383e-04 1.67133e-15 
4.20000e-01 -1.96000e+00 1.31555e+00 6.98184e-04 1.79622e-15 
4.40000e-01 -1.96000e+00 1.31513e+00 9.54203e-04 1.14839e-15 
4.60000e-01 -1.96000e+00 1.31459e+00 1.21021e-03 1.81395e-15 
4.80000e-01 -1.96000e+00 1.31392e+00 1.46599e-03 1.45959e-15 
5.00000e-01 -1.96000e+00 1.31313e+00 1.72131e-03 1.34321e-15 
5.20000e-01 -1.96000e+00 1.31220e+00 1.97596e-03 1.62647e-15 
5.40000e-01 -1.96000e+00 1.31115e+00 2.22972e-03 1.18970e-15 
5.60000e-01 -1.96000e+00 1.30997e+00 2.48238e-03 1.33055e-15 
5.80000e-01 -1.96000e+00 1.30867e+00 2.73374e-03 8.05956e-16 
6.00000e-01 -1.96000e+00 1.30723e+00 2.98360e-03 6.36263e-16 
6.20000e-01 -1.96000e+00 1.30568e+00 3.23176e-03 2.09994e-16 
6.40000e-01 -1.96000e+00 1.30400e+00 3.47803e-03 7.66673e-16 
6.60000e-01 -1.96000e+00 1.30220e+00 3.72222e-03 6.92361e-16 
6.80000e-01 -1.96000e+00 1.30027e+00 3.96414e-03 2.07971e-16 
7.00000e-01 -1.96000e+00 1.29823e+00 4.20363e-03 3.27194e-16 
7.20000e-01 -1.96000e+00 1.29607e+00 4.44051e-03 4.71263e-16 
7.40000e-01 -1.96000e+00 1.29379e+00 4.67461e-03 -3.64093e-17 
7.60000e-01 -1.96000e+00 1.29139e+00 4.90578e-03 1.46663e-16 
7.80000e-01 -1.96000e+00 1.28888e+00 5.13385e-03 -1.69341e-16 
8.00000e-01 -1.96000e+00 1.28625e+00 5.35868e-03 -4.79405e-16 
8.20000e-01 -1.96000e+00 1.28351e+00 5.58013e-03 -6.77758e-17 
8.40000e-01 -1.96000e+00 1.28066e+00 5.79806e-03 -2.33156e-16 
8.60000e-01 -1.96000e+00 1.27771e+00 6.01234e-03 1.17705e-16 
8.80000e-01 -1.96000e+00 1.27465e+00 6.22284e-03 3.10805e-16 
9.00000e-01 -1.96000e+00 1.27148e+00 6.42946e-03 1.42566e-15 
9.20000e-01 -1.96000e+00 1.26821e+00 6.63208e-03 5.81050e-16 
9.40000e-01 -1.96000e+00 1.26484e+00 6.83059e-03 1.27628e-15 
9.60000e-01 -1.96000e+00 1.26137e+00 7.02492e-03 1.37742e-15 
9.80000e-01 -1.96000e+00 1.25781e+00 7.21495e-03 1.68909e-15 
1.00000e+00 -1.96000e+00 1.25415e+00 7.40063e-03 1.95050e-15 
1.02000e+00 -1.96000e+00 1.25040e+00 7.58188e-03 2.19388e-15 
1.04000e+00 -1.96000e+00 1.24656e+00 7.75863e-03 2.81186e-15 
1.06000e+00 -1.96000e+00 1.24264e+00 7.93083e-03 2.78993e-15 
1.08000e+00 -1.96000e+00 1.23863e+00 8.09843e-03 3.10472e-15 
1.10000e+00 -1.96000e+00 1.23453e+00 8.26139e-03 3.10861e-15 
1.12000e+00 -1.96000e+00 1.23036e+00 8.41968e-03 3.64482e-15 
1.14000e+00 -1.96000e+00 1.22610e+00 8.57328e-03 4.81056e-15 
1.16000e+00 -1.96000e+00 1.22178e+00 8.72218e-03 5.95854e-15 
1.18000e+00 -1.96000e+00 1.21738e+00 8.86636e-03 7.20669e-15 
1.20000e+00 -1.96000e+00 1.21290e+00 9.00582e-03 8.21755e-15 
1.22000e+00 -1.96000e+00 1.20836e+00 9.14059e-03 9.74513e-15 
1.24000e+00 -1.96000e+00 1.20376e+00 9.27066e-03 1.09558e-14 
1.26000e+00 -1.96000e+00 1.19909e+00 9.39607e-03 1.27854e-14 
1.28000e+00 -1.96000e+00 1.19435e+00 9.51684e-03 1.53679e-14 
1.30000e+00 -1.96000e+00 1.18956e+00 9.63302e-03 1.72757e-14 
1.32000e+00 -1.96000e+00 1.18471e+00 9.74464e-03 1.99534e-14 
1.34000e+00 -1.96000e+00 1.17981e+00 9.85176e-03 2.23506e-14 
1.36000e+00 -1.96000e+00 1.17485e+00 9.95443e-03 2.52369e-14 
1.38000e+00 -1.96000e+00 1.16985e+00 1.00527e-02 2.81998e-14 
1.40000e+00 -1.96000e+00 1.16480e+00 1.01467e-02 3.09527e-14 
1.42000e+00 -1.96000e+00 1.15970e+00 1.02364e-02 3.37677e-14 
1.44000e+00 -1.96000e+00 1.15455e+00 1.03220e-02 3.75139e-14 
1.46000e+00 -1.96000e+00 1.14937e+00 1.04034e-02 4.04133e-14 
1.48000e+00 -1.96000e+00 1.14414e+00 1.04808e-02 4.32288e-14 
1.50000e+00 -1.96000e+00 1.13888e+00 1.05544e-02 4.68354e-14 
1.52000e+00 -1.96000e+00 1.13358e+00 1.06240e-02 5.05867e-14 
1.54000e+00 -1.96000e+00 1.12825e+00 1.06900e-02 5.39847e-14 
1.56000e+00 -1.96000e+00 1.12289e+00 1.07522e-02 5.66938e-14 
1.58000e+00 -1.96000e+00 1.11749e+00 1.08109e-02 5.94441e-14 
1.60000e+00 -1.96000e+00 1.11207e+00 1.08661e-02 6.18298e-14 
1.62000e+00 -1.96000e+00 1.10662e+00 1.09180e-02 6.47445e-14 
1.64000e+00 -1.96000e+00 1.10115e+00 1.09665e-02 6.75521e-14 
1.66000e+00 -1.96000e+00 1.09565e+00 1.10118e-02 6.98224e-14 
1.68000e+00 -1.96000e+00 1.09013e+00 1.10541e-02 7.17039e-14 
1.70000e+00 -1.96000e+00 1.08459e+00 1.10932e-02 7.25392e-14 
1.72000e+00 -1.96000e+00 1.07903e+00 1.11295e-02 7.31276e-14 
1.74000e+00 -1.96000e+00 1.07346e+00 1.11628e-02 7.30614e-14 
1.76000e+00 -1.96000e+00 1.06787e+00 1.11934e-02 7.29780e-14 
1.78000e+00 -1.96000e+00 1.06226e+00 1.12212e-02 7.20320e-14 
1.80000e+00 -1.96000e+00 1.05664e+00 1.12464e-02 7.09901e-14 
1.82000e+00 -1.96000e+00 1.05101e+00 1.12689e-02 6.90474e-14 
1.84000e+00 -1.96000e+00 1.04537e+00 1.12890e-02 6.67846e-14 
1.86000e+00 -1.96000e+00 1.03972e+00 1.13065e-02 6.39077e-14 
1.88000e+00 -1.96000e+00 1.03406e+00 1.13216e-02 6.10479e-14 
1.90000e+00 -1.96000e+00 1.02839e+00 1.13344e-02 5.76490e-14 
1.92000e+00 -1.96000e+00 1.02272e+00 1.13447e-02 5.38987e-14 
1.94000e+00 -1.96000e+00 1.01705e+00 1.13527e-02 5.02722e-14 
1.96000e+00 -1.96000e+00 1.01137e+00 1.13585e-02 4.63555e-14 
1.98000e+00 -1.96000e+00 1.00568e+00 1.13619e-02 4.22986e-14 
-1.98000e+00 -1.94000e+00 1.00211e+00 -6.33919e-03 3.59775e-16 
-1.96000e+00 -1.94000e+00 1.00422e+00 -6.34493e-03 4.19229e-16 
-1.94000e+00 -1.94000e+00 1.00633e+00 -6.35449e-03 9.76452e-16 
-1.92000e+00 -1.94000e+00 1.00845e+00 -6.36785e-03 9.29366e-16 
-1.90000e+00 -1.94000e+00 1.01057e+00 -6.38502e-03 1.12952e-15 
-1.88000e+00 -1.94000e+00 1.01270e+00 -6.40597e-03 3.31805e-16 
-1.86000e+00 -1.94000e+00 1.01483e+00 -6.43069e-03 9.74041e-16 
-1.84000e+00 -1.94000e+00 1.01697e+00 -6.45916e-03 8.44118e-16 
-1.82000e+00 -1.94000e+00 1.01913e+00 -6.49135e-03 1.60077e-15 
-1.80000e+00 -1.94000e+00 1.02129e+00 -6.52723e-03 9.72471e-16 
-1.78000e+00 -1.94000e+00 1.02347e+00 -6.56677e-03 1.57774e-15 
-1.76000e+00 -1.94000e+00 1.02566e+00 -6.60994e-03 1.38743e-15 
-1.74000e+00 -1.94000e+00 1.02787e+00 -6.65669e-03 1.49287e-15 
-1.72000e+00 -1.94000e+00 1.03009e+00 -6.70699e-03 1.04190e-15 
-1.70000e+00 -1.94000e+00 1.03234e+00 -6.76077e-03 7.60441e-16 
-1.68000e+00 -1.94000e+00 1.03459e+00 -6.81800e-03 5.35958e-16 
-1.66000e+00 -1.94000e+00 1.03687e+00 -6.87862e-03 1.26349e-15 
-1.64000e+00 -1.94000e+00 1.03917e+00 -6.94255e-03 1.17243e-15 
-1.62000e+00 -1.94000e+00 1.04149e+00 -7.00974e-03 1.49885e-15 
-1.60000e+00 -1.94000e+00 1.04384e+00 -7.08012e-03 1.79400e-15 
-1.58000e+00 -1.94000e+00 1.04621e+00 -7.15360e-03 2.04891e-15 
-1.56000e+00 -1.94000e+00 1.04860e+00 -7.23011e-03 1.77315e-15 
-1.54000e+00 -1.94000e+00 1.05102e+00 -7.30955e-03 2.22596e-15 
-1.52000e+00 -1.94000e+00 1.05347e+00 -7.39183e-03 2.39147e-15 
-1.50000e+00 -1.94000e+00 1.05594e+00 -7.47686e-03 2.48188e-15 
-1.48000e+00 -1.94000e+00 1.05845e+00 -7.56452e-03 2.36346e-15 
-1.46000e+00 -1.94000e+00 1.06098e+00 -7.65470e-03 1.79975e-15 
-1.44000e+00 -1.94000e+00 1.06355e+00 -7.74729e-03 2.30081e-15 
-1.42000e+00 -1.94000e+00 1.06614e+00 -7.84215e-03 2.31032e-15 
-1.40000e+00 -1.94000e+00 1.06877e+00 -7.93916e-03 2.15508e-15 
-1.38000e+00 -1.94000e+00 1.07143e+00 -8.03817e-03 2.34460e-15 
-1.36000e+00 -1.94000e+00 1.07412e+00 -8.13903e-03 2.32775e-15 
-1.34000e+00 -1.94000e+00 1.07685e+00 -8.24158e-03 1.94867e-15 
-1.32000e+00 -1.94000e+00 1.07962e+00 -8.34568e-03 1.75046e-15 
-1.30000e+00 -1.94000e+00 1.08241e+00 -8.45113e-03 1.54116e-15 
-1.28000e+00 -1.94000e+00 1.08525e+00 -8.55777e-03 8.71115e-16 
-1.26000e+00 -1.94000e+00 1.08812e+00 -8.66540e-03 1.01827e-15 
-1.24000e+00 -1.94000e+00 1.09102e+00 -8.77383e-03 1.70170e-15 
-1.22000e+00 -1.94000e+00 1.09397e+00 -8.88286e-03 2.04763e-15 
-1.20000e+00 -1.94000e+00 1.09694e+00 -8.99227e-03 3.00538e-15 
-1.18000e+00 -1.94000e+00 1.09996e+00 -9.10185e-03 3.08135e-15 
-1.16000e+00 -1.94000e+00 1.10301e+00 -9.21136e-03 2.87131e-15 
-1.14000e+00 -1.94000e+00 1.10610e+00 -9.32057e-03 3.03061e-15 
-1.12000e+00 -1.94000e+00 1.10923e+00 -9.42923e-03 3.07884e-15 
-1.10000e+00 -1.94000e+00 1.11239e+00 -9.53710e-03 3.13229e-15 
-1.08000e+00 -1.94000e+00 1.11559e+00 -9.64391e-03 3.15651e-15 
-1.06000e+00 -1.94000e+00 1.11882e+00 -9.74939e-03 3.05087e-15 
-1.04000e+00 -1.94000e+00 1.12209e+00 -9.85328e-03 3.22378e-15 
-1.02000e+00 -1.94000e+00 1.12539e+00 -9.95529e-03 2.58453e-15 
-1.00000e+00 -1.94000e+00 1.12873e+00 -1.00551e-02 2.43939e-15 
-9.80000e-01 -1.94000e+00 1.13210e+00 -1.01525e-02 2.01145e-15 
-9.60000e-01 -1.94000e+00 1.13551e+00 -1.02471e-02 1.91458e-15 
-9.40000e-01 -1.94000e+00 1.13894e+00 -1.03387e-02 1.52620e-15 
-9.20000e-01 -1.94000e+00 1.14241e+00 -1.04269e-02 1.76159e-15 
-9.00000e-01 -1.94000e+00 1.14590e+00 -1.05114e-02 1.30396e-15 
-8.80000e-01 -1.94000e+00 1.14942e+00 -1.05920e-02 1.92737e-15 
-8.60000e-01 -1.94000e+00 1.15297e+00 -1.06682e-02 2.03417e-15 
-8.40000e-01 -1.94000e+00 1.15654e+00 -1.07398e-02 2.16998e-15 
-8.20000e-01 -1.94000e+00 1.16014e+00 -1.08064e-02 2.01258e-15 
-8.00000e-01 -1.94000e+00 1.16376e+00 -1.08678e-02 2.01077e-15 
-7.80000e-01 -1.94000e+00 1.16740e+00 -1.09236e-02 1.64266e-15 
-7.60000e-01 -1.94000e+00 1.17105e+00 -1.09734e-02 6.14392e-16 
-7.40000e-01 -1.94000e+00 1.17473e+00 -1.10171e-02 7.83896e-16 
-7.20000e-01 -1.94000e+00 1.17841e+00 -1.10543e-02 1.34845e-15 
-7.00000e-01 -1.94000e+00 1.18211e+00 -1.10846e-02 1.05695e-15 
-6.80000e-01 -1.94000e+00 1.18582e+00 -1.11078e-02 3.13881e-16 
-6.60000e-01 -1.94000e+00 1.18953e+00 -1.11235e-02 9.75701e-16 
-6.40000e-01 -1.94000e+00 1.19325e+00 -1.11316e-02 7.68110e-16 
-6.20000e-01 -1.94000e+00 1.19697e+00 -1.11317e-02 1.11593e-15 
-6.00000e-01 -1.94000e+00 1.20069e+00 -1.11236e-02 1.27841e-15 
-5.80000e-01 -1.94000e+00 1.20440e+00 -1.11069e-02 9.97149e-16 
-5.60000e-01 -1.94000e+00 1.20811e+00 -1.10816e-02 9.64282e-16 