TITLE = "Test run, step00200"
VARIABLES = "x" "y" "u" "v" "Vorticity" 
ZONE T="Rectangular zone"
I=199, J=199, K=1, ZONETYPE=Ordered
DATAPACKING=POINT
DT=(SINGLE SINGLE SINGLE SINGLE SINGLE )
-1.98000e+00 -1.98000e+00 1.00214e+00 -2.14273e-03 1.29288e-17 
-1.96000e+00 -1.98000e+00 1.00428e+00 -2.14469e-03 -7.37601e-18 
-1.94000e+00 -1.98000e+00 1.00643e+00 -2.14796e-03 1.37720e-16 
-1.92000e+00 -1.98000e+00 1.00858e+00 -2.15253e-03 2.57693e-16 
-1.90000e+00 -1.98000e+00 1.01073e+00 -2.15840e-03 1.77251e-16 
-1.88000e+00 -1.98000e+00 1.01289e+00 -2.16556e-03 2.78600e-16 
-1.86000e+00 -1.98000e+00 1.01506e+00 -2.17401e-03 3.01657e-16 
-1.84000e+00 -1.98000e+00 1.01724e+00 -2.18374e-03 3.18845e-16 
-1.82000e+00 -1.98000e+00 1.01943e+00 -2.19475e-03 3.03366e-16 
-1.80000e+00 -1.98000e+00 1.02163e+00 -2.20703e-03 5.50943e-16 
-1.78000e+00 -1.98000e+00 1.02384e+00 -2.22055e-03 1.99700e-16 
-1.76000e+00 -1.98000e+00 1.02607e+00 -2.23532e-03 3.85161e-16 
-1.74000e+00 -1.98000e+00 1.02831e+00 -2.25133e-03 3.21955e-17 
-1.72000e+00 -1.98000e+00 1.03057e+00 -2.26854e-03 5.82928e-18 
-1.70000e+00 -1.98000e+00 1.03285e+00 -2.28696e-03 1.95784e-17 
-1.68000e+00 -1.98000e+00 1.03514e+00 -2.30657e-03 1.15509e-16 
-1.66000e+00 -1.98000e+00 1.03746e+00 -2.32734e-03 7.02201e-17 
-1.64000e+00 -1.98000e+00 1.03980e+00 -2.34925e-03 1.38094e-16 
-1.62000e+00 -1.98000e+00 1.04216e+00 -2.37230e-03 3.65727e-16 
-1.60000e+00 -1.98000e+00 1.04454e+00 -2.39644e-03 4.93494e-16 
-1.58000e+00 -1.98000e+00 1.04695e+00 -2.42166e-03 5.74441e-16 
-1.56000e+00 -1.98000e+00 1.04938e+00 -2.44793e-03 4.41067e-16 
-1.54000e+00 -1.98000e+00 1.05184e+00 -2.47522e-03 6.33823e-16 
-1.52000e+00 -1.98000e+00 1.05433e+00 -2.50351e-03 8.00049e-16 
-1.50000e+00 -1.98000e+00 1.05685e+00 -2.53275e-03 8.48745e-16 
-1.48000e+00 -1.98000e+00 1.05940e+00 -2.56292e-03 3.43407e-16 
-1.46000e+00 -1.98000e+00 1.06197e+00 -2.59398e-03 3.06374e-16 
-1.44000e+00 -1.98000e+00 1.06458e+00 -2.62589e-03 2.19314e-16 
-1.42000e+00 -1.98000e+00 1.06723e+00 -2.65861e-03 2.18455e-16 
-1.40000e+00 -1.98000e+00 1.06990e+00 -2.69209e-03 1.21952e-16 
-1.38000e+00 -1.98000e+00 1.07261e+00 -2.72630e-03 4.97709e-16 
-1.36000e+00 -1.98000e+00 1.07535e+00 -2.76118e-03 6.80735e-16 
-1.34000e+00 -1.98000e+00 1.07813e+00 -2.79668e-03 4.92620e-16 
-1.32000e+00 -1.98000e+00 1.08094e+00 -2.83276e-03 5.23755e-17 
-1.30000e+00 -1.98000e+00 1.08380e+00 -2.86935e-03 2.81962e-16 
-1.28000e+00 -1.98000e+00 1.08668e+00 -2.90640e-03 3.78946e-16 
-1.26000e+00 -1.98000e+00 1.08961e+00 -2.94384e-03 2.03202e-16 
-1.24000e+00 -1.98000e+00 1.09257e+00 -2.98162e-03 1.83508e-16 
-1.22000e+00 -1.98000e+00 1.09557e+00 -3.01966e-03 2.71215e-16 
-1.20000e+00 -1.98000e+00 1.09861e+00 -3.05791e-03 -1.60974e-17 
-1.18000e+00 -1.98000e+00 1.10169e+00 -3.09628e-03 2.98859e-16 
-1.16000e+00 -1.98000e+00 1.10480e+00 -3.13471e-03 3.50373e-16 
-1.14000e+00 -1.98000e+00 1.10796e+00 -3.17312e-03 7.76304e-16 
-1.12000e+00 -1.98000e+00 1.11115e+00 -3.21142e-03 9.60342e-16 
-1.10000e+00 -1.98000e+00 1.11438e+00 -3.24955e-03 9.89469e-16 
-1.08000e+00 -1.98000e+00 1.11765e+00 -3.28741e-03 8.50676e-16 
-1.06000e+00 -1.98000e+00 1.12095e+00 -3.32491e-03 1.12996e-15 
-1.04000e+00 -1.98000e+00 1.12430e+00 -3.36198e-03 1.20060e-15 
-1.02000e+00 -1.98000e+00 1.12768e+00 -3.39851e-03 1.59306e-15 
-1.00000e+00 -1.98000e+00 1.13110e+00 -3.43442e-03 1.37396e-15 
-9.80000e-01 -1.98000e+00 1.13455e+00 -3.46961e-03 1.54045e-15 
-9.60000e-01 -1.98000e+00 1.13804e+00 -3.50399e-03 1.60731e-15 
-9.40000e-01 -1.98000e+00 1.14156e+00 -3.53745e-03 1.44897e-15 
-9.20000e-01 -1.98000e+00 1.14511e+00 -3.56991e-03 1.11868e-15 
-9.00000e-01 -1.98000e+00 1.14870e+00 -3.60124e-03 1.30122e-15 
-8.80000e-01 -1.98000e+00 1.15232e+00 -3.63137e-03 8.91999e-16 
-8.60000e-01 -1.98000e+00 1.15596e+00 -3.66017e-03 5.34699e-16 
-8.40000e-01 -1.98000e+00 1.15964e+00 -3.68756e-03 2.70965e-16 
-8.20000e-01 -1.98000e+00 1.16334e+00 -3.71342e-03 -1.09495e-16 
-8.00000e-01 -1.98000e+00 1.16707e+00 -3.73766e-03 -2.78303e-17 
-7.80000e-01 -1.98000e+00 1.17082e+00 -3.76016e-03 2.97875e-18 
-7.60000e-01 -1.98000e+00 1.17459e+00 -3.78084e-03 -5.16926e-16 
-7.40000e-01 -1.98000e+00 1.17838e+00 -3.79958e-03 -5.34397e-16 
-7.20000e-01 -1.98000e+00 1.18219e+00 -3.81629e-03 4.62170e-17 
-7.00000e-01 -1.98000e+00 1.18601e+00 -3.83086e-03 3.61342e-16 
-6.80000e-01 -1.98000e+00 1.18985e+00 -3.84321e-03 7.52166e-16 
-6.60000e-01 -1.98000e+00 1.19370e+00 -3.85324e-03 6.42736e-16 
-6.40000e-01 -1.98000e+00 1.19756e+00 -3.86085e-03 7.17833e-16 
-6.20000e-01 -1.98000e+00 1.20143e+00 -3.86595e-03 7.52744e-16 
-6.00000e-01 -1.98000e+00 1.20530e+00 -3.86847e-03 1.03594e-15 
-5.80000e-01 -1.98000e+00 1.20917e+00 -3.86832e-03 1.09449e-15 
-5.60000e-01 -1.98000e+00 1.21304e+00 -3.86541e-03 1.27550e-15 
-5.40000e-01 -1.98000e+00 1.21690e+00 -3.85969e-03 8.03442e-16 
-5.20000e-01 -1.98000e+00 1.22076e+00 -3.85107e-03 6.63885e-16 
-5.00000e-01 -1.98000e+00 1.22461e+00 -3.83949e-03 6.55490e-16 
-4.80000e-01 -1.98000e+00 1.22844e+00 -3.82489e-03 2.89087e-16 
-4.60000e-01 -1.98000e+00 1.23226e+00 -3.80722e-03 6.44445e-16 
-4.40000e-01 -1.98000e+00 1.23606e+00 -3.78643e-03 7.49579e-16 
-4.20000e-01 -1.98000e+00 1.23983e+00 -3.76248e-03 1.07763e-15 
-4.00000e-01 -1.98000e+00 1.24359e+00 -3.73532e-03 5.83338e-16 
-3.80000e-01 -1.98000e+00 1.24731e+00 -3.70494e-03 8.51175e-16 
-3.60000e-01 -1.98000e+00 1.25100e+00 -3.67130e-03 -1.45230e-15 
-3.40000e-01 -1.98000e+00 1.25465e+00 -3.63438e-03 -2.00853e-15 
-3.20000e-01 -1.98000e+00 1.25827e+00 -3.59418e-03 -1.43242e-15 
-3.00000e-01 -1.98000e+00 1.26185e+00 -3.55069e-03 -1.06083e-15 
-2.80000e-01 -1.98000e+00 1.26538e+00 -3.50390e-03 -1.12911e-15 
-2.60000e-01 -1.98000e+00 1.26886e+00 -3.45384e-03 -5.18488e-16 
-2.40000e-01 -1.98000e+00 1.27229e+00 -3.40051e-03 -1.26228e-16 
-2.20000e-01 -1.98000e+00 1.27566e+00 -3.34393e-03 8.02947e-17 
-2.00000e-01 -1.98000e+00 1.27898e+00 -3.28413e-03 -4.45333e-18 
-1.80000e-01 -1.98000e+00 1.28223e+00 -3.22115e-03 6.93188e-16 
-1.60000e-01 -1.98000e+00 1.28542e+00 -3.15501e-03 1.22172e-15 
-1.40000e-01 -1.98000e+00 1.28855e+00 -3.08578e-03 1.82665e-15 
-1.20000e-01 -1.98000e+00 1.29160e+00 -3.01349e-03 2.50316e-15 
-1.00000e-01 -1.98000e+00 1.29458e+00 -2.93820e-03 3.03884e-15 
-8.00000e-02 -1.98000e+00 1.29748e+00 -2.85998e-03 2.91704e-15 
-6.00000e-02 -1.98000e+00 1.30030e+00 -2.77888e-03 2.66180e-15 
-4.00000e-02 -1.98000e+00 1.30304e+00 -2.69497e-03 3.28839e-15 
-2.00000e-02 -1.98000e+00 1.30569e+00 -2.60834e-03 2.81462e-15 
0.00000e+00 -1.98000e+00 1.30826e+00 -2.51905e-03 3.25235e-15 
2.00000e-02 -1.98000e+00 1.31073e+00 -2.42719e-03 2.75699e-15 
4.00000e-02 -1.98000e+00 1.31311e+00 -2.33284e-03 2.96612e-15 
6.00000e-02 -1.98000e+00 1.31540e+00 -2.23608e-03 2.64133e-15 
8.00000e-02 -1.98000e+00 1.31759e+00 -2.13700e-03 2.21472e-15 
1.00000e-01 -1.98000e+00 1.31968e+00 -2.03570e-03 2.12556e-15 
1.20000e-01 -1.98000e+00 1.32166e+00 -1.93225e-03 2.13385e-15 
1.40000e-01 -1.98000e+00 1.32354e+00 -1.82676e-03 1.95588e-15 
1.60000e-01 -1.98000e+00 1.32532e+00 -1.71932e-03 2.13143e-15 
1.80000e-01 -1.98000e+00 1.32698e+00 -1.61001e-03 2.03166e-15 
2.00000e-01 -1.98000e+00 1.32854e+00 -1.49894e-03 1.73653e-15 
2.20000e-01 -1.98000e+00 1.32998e+00 -1.38619e-03 1.71162e-15 
2.40000e-01 -1.98000e+00 1.33131e+00 -1.27185e-03 1.49938e-15 
2.60000e-01 -1.98000e+00 1.33253e+00 -1.15603e-03 1.37905e-15 
2.80000e-01 -1.98000e+00 1.33363e+00 -1.03881e-03 7.77754e-16 
3.00000e-01 -1.98000e+00 1.33461e+00 -9.20272e-04 2.03802e-16 
3.20000e-01 -1.98000e+00 1.33547e+00 -8.00514e-04 2.27411e-16 
3.40000e-01 -1.98000e+00 1.33621e+00 -6.79620e-04 1.03261e-16 
3.60000e-01 -1.98000e+00 1.33683e+00 -5.57673e-04 3.68074e-17 
3.80000e-01 -1.98000e+00 1.33733e+00 -4.34758e-04 1.06920e-16 
4.00000e-01 -1.98000e+00 1.33770e+00 -3.10954e-04 2.87264e-17 
4.20000e-01 -1.98000e+00 1.33795e+00 -1.86342e-04 -3.64819e-16 
4.40000e-01 -1.98000e+00 1.33807e+00 -6.09974e-05 -2.95659e-16 
4.60000e-01 -1.98000e+00 1.33807e+00 6.50038e-05 -4.77877e-16 
4.80000e-01 -1.98000e+00 1.33794e+00 1.91589e-04 -2.35631e-16 
5.00000e-01 -1.98000e+00 1.33769e+00 3.18688e-04 -3.75796e-16 
5.20000e-01 -1.98000e+00 1.33731e+00 4.46231e-04 -3.08577e-16 
5.40000e-01 -1.98000e+00 1.33680e+00 5.74151e-04 6.83375e-17 
5.60000e-01 -1.98000e+00 1.33616e+00 7.02384e-04 2.18403e-16 
5.80000e-01 -1.98000e+00 1.33539e+00 8.30866e-04 3.68592e-16 
6.00000e-01 -1.98000e+00 1.33450e+00 9.59536e-04 -8.54161e-17 
6.20000e-01 -1.98000e+00 1.33347e+00 1.08833e-03 5.80489e-17 
6.40000e-01 -1.98000e+00 1.33232e+00 1.21720e-03 4.55619e-16 
6.60000e-01 -1.98000e+00 1.33104e+00 1.34608e-03 7.40678e-16 
6.80000e-01 -1.98000e+00 1.32963e+00 1.47492e-03 4.79004e-16 
7.00000e-01 -1.98000e+00 1.32809e+00 1.60366e-03 5.53634e-16 
7.20000e-01 -1.98000e+00 1.32642e+00 1.73225e-03 3.76484e-16 
7.40000e-01 -1.98000e+00 1.32462e+00 1.86063e-03 -1.14971e-17 
7.60000e-01 -1.98000e+00 1.32270e+00 1.98875e-03 1.36310e-16 
7.80000e-01 -1.98000e+00 1.32065e+00 2.11657e-03 1.99808e-16 
8.00000e-01 -1.98000e+00 1.31847e+00 2.24402e-03 1.10990e-16 
8.20000e-01 -1.98000e+00 1.31616e+00 2.37107e-03 3.06162e-17 
8.40000e-01 -1.98000e+00 1.31372e+00 2.49765e-03 3.00775e-16 
8.60000e-01 -1.98000e+00 1.31116e+00 2.62372e-03 3.49471e-16 
8.80000e-01 -1.98000e+00 1.30847e+00 2.74922e-03 4.09354e-16 
9.00000e-01 -1.98000e+00 1.30566e+00 2.87411e-03 5.51416e-16 
9.20000e-01 -1.98000e+00 1.30273e+00 2.99832e-03 1.18821e-15 
9.40000e-01 -1.98000e+00 1.29966e+00 3.12182e-03 1.76117e-15 
9.60000e-01 -1.98000e+00 1.29648e+00 3.24454e-03 2.25024e-15 
9.80000e-01 -1.98000e+00 1.29318e+00 3.36644e-03 2.93845e-15 
1.00000e+00 -1.98000e+00 1.28975e+00 3.48746e-03 4.07778e-15 
1.02000e+00 -1.98000e+00 1.28620e+00 3.60754e-03 5.53239e-15 
1.04000e+00 -1.98000e+00 1.28253e+00 3.72662e-03 6.87036e-15 
1.06000e+00 -1.98000e+00 1.27874e+00 3.84466e-03 8.94779e-15 
1.08000e+00 -1.98000e+00 1.27484e+00 3.96160e-03 1.16130e-14 
1.10000e+00 -1.98000e+00 1.27082e+00 4.07737e-03 1.49043e-14 
1.12000e+00 -1.98000e+00 1.26668e+00 4.19192e-03 1.89239e-14 
1.14000e+00 -1.98000e+00 1.26244e+00 4.30518e-03 2.37443e-14 
1.16000e+00 -1.98000e+00 1.25807e+00 4.41710e-03 3.00044e-14 
1.18000e+00 -1.98000e+00 1.25360e+00 4.52762e-03 3.72995e-14 
1.20000e+00 -1.98000e+00 1.24902e+00 4.63667e-03 4.59742e-14 
1.22000e+00 -1.98000e+00 1.24432e+00 4.74418e-03 5.70839e-14 
1.24000e+00 -1.98000e+00 1.23953e+00 4.85011e-03 7.07175e-14 
1.26000e+00 -1.98000e+00 1.23462e+00 4.95437e-03 8.68873e-14 
1.28000e+00 -1.98000e+00 1.22962e+00 5.05691e-03 1.06255e-13 
1.30000e+00 -1.98000e+00 1.22451e+00 5.15766e-03 1.29908e-13 
1.32000e+00 -1.98000e+00 1.21930e+00 5.25655e-03 1.58174e-13 
1.34000e+00 -1.98000e+00 1.21399e+00 5.35352e-03 1.91714e-13 
1.36000e+00 -1.98000e+00 1.20859e+00 5.44850e-03 2.30861e-13 
1.38000e+00 -1.98000e+00 1.20309e+00 5.54143e-03 2.76776e-13 
1.40000e+00 -1.98000e+00 1.19750e+00 5.63223e-03 3.30491e-13 
1.42000e+00 -1.98000e+00 1.19183e+00 5.72085e-03 3.92974e-13 
1.44000e+00 -1.98000e+00 1.18606e+00 5.80721e-03 4.65825e-13 
1.46000e+00 -1.98000e+00 1.18021e+00 5.89125e-03 5.50193e-13 
1.48000e+00 -1.98000e+00 1.17428e+00 5.97291e-03 6.48459e-13 
1.50000e+00 -1.98000e+00 1.16826e+00 6.05211e-03 7.61016e-13 
1.52000e+00 -1.98000e+00 1.16217e+00 6.12881e-03 8.90710e-13 
1.54000e+00 -1.98000e+00 1.15600e+00 6.20292e-03 1.03880e-12 
1.56000e+00 -1.98000e+00 1.14976e+00 6.27440e-03 1.20738e-12 
1.58000e+00 -1.98000e+00 1.14345e+00 6.34317e-03 1.39957e-12 
1.60000e+00 -1.98000e+00 1.13707e+00 6.40919e-03 1.61645e-12 
1.62000e+00 -1.98000e+00 1.13063e+00 6.47239e-03 1.86187e-12 
1.64000e+00 -1.98000e+00 1.12412e+00 6.53272e-03 2.13757e-12 
1.66000e+00 -1.98000e+00 1.11756e+00 6.59012e-03 2.44658e-12 
1.68000e+00 -1.98000e+00 1.11094e+00 6.64454e-03 2.79219e-12 
1.70000e+00 -1.98000e+00 1.10427e+00 6.69593e-03 3.17720e-12 
1.72000e+00 -1.98000e+00 1.09755e+00 6.74425e-03 3.60473e-12 
1.74000e+00 -1.98000e+00 1.09078e+00 6.78944e-03 4.07900e-12 
1.76000e+00 -1.98000e+00 1.08396e+00 6.83146e-03 4.60268e-12 
1.78000e+00 -1.98000e+00 1.07711e+00 6.87028e-03 5.17964e-12 
1.80000e+00 -1.98000e+00 1.07022e+00 6.90585e-03 5.81283e-12 
1.82000e+00 -1.98000e+00 1.06330e+00 6.93815e-03 6.50612e-12 
1.84000e+00 -1.98000e+00 1.05634e+00 6.96713e-03 7.26325e-12 
1.86000e+00 -1.98000e+00 1.04936e+00 6.99277e-03 8.08708e-12 
1.88000e+00 -1.98000e+00 1.04235e+00 7.01505e-03 8.98152e-12 
1.90000e+00 -1.98000e+00 1.03532e+00 7.03393e-03 9.94971e-12 
1.92000e+00 -1.98000e+00 1.02828e+00 7.04941e-03 1.09954e-11 
1.94000e+00 -1.98000e+00 1.02122e+00 7.06147e-03 1.21197e-11 
1.96000e+00 -1.98000e+00 1.01415e+00 7.07009e-03 1.33241e-11 
1.98000e+00 -1.98000e+00 1.00708e+00 7.07526e-03 1.46226e-11 
-1.98000e+00 -1.96000e+00 1.00214e+00 -4.28416e-03 1.60013e-16 
-1.96000e+00 -1.96000e+00 1.00428e+00 -4.28808e-03 6.94080e-17 
-1.94000e+00 -1.96000e+00 1.00642e+00 -4.29461e-03 1.43244e-16 
-1.92000e+00 -1.96000e+00 1.00857e+00 -4.30376e-03 2.17204e-16 
-1.90000e+00 -1.96000e+00 1.01072e+00 -4.31550e-03 -6.75645e-17 
-1.88000e+00 -1.96000e+00 1.01288e+00 -4.32983e-03 2.55712e-16 
-1.86000e+00 -1.96000e+00 1.01505e+00 -4.34674e-03 3.36637e-16 
-1.84000e+00 -1.96000e+00 1.01723e+00 -4.36621e-03 2.52772e-16 
-1.82000e+00 -1.96000e+00 1.01941e+00 -4.38824e-03 3.01367e-16 
-1.80000e+00 -1.96000e+00 1.02161e+00 -4.41280e-03 7.63492e-16 
-1.78000e+00 -1.96000e+00 1.02382e+00 -4.43986e-03 4.13336e-16 
-1.76000e+00 -1.96000e+00 1.02605e+00 -4.46942e-03 7.86700e-16 
-1.74000e+00 -1.96000e+00 1.02829e+00 -4.50144e-03 3.96418e-17 
-1.72000e+00 -1.96000e+00 1.03054e+00 -4.53589e-03 1.50201e-16 
-1.70000e+00 -1.96000e+00 1.03282e+00 -4.57274e-03 5.90769e-17 
-1.68000e+00 -1.96000e+00 1.03511e+00 -4.61197e-03 7.51444e-17 
-1.66000e+00 -1.96000e+00 1.03743e+00 -4.65353e-03 1.37950e-16 
-1.64000e+00 -1.96000e+00 1.03976e+00 -4.69738e-03 2.69432e-17 
-1.62000e+00 -1.96000e+00 1.04212e+00 -4.74349e-03 2.90706e-16 
-1.60000e+00 -1.96000e+00 1.04450e+00 -4.79180e-03 4.93298e-16 
-1.58000e+00 -1.96000e+00 1.04691e+00 -4.84227e-03 5.70798e-16 
-1.56000e+00 -1.96000e+00 1.04934e+00 -4.89483e-03 4.34888e-16 
-1.54000e+00 -1.96000e+00 1.05180e+00 -4.94945e-03 7.60537e-16 
-1.52000e+00 -1.96000e+00 1.05429e+00 -5.00605e-03 1.15531e-15 
-1.50000e+00 -1.96000e+00 1.05680e+00 -5.06457e-03 9.59959e-16 
-1.48000e+00 -1.96000e+00 1.05935e+00 -5.12495e-03 2.08625e-17 
-1.46000e+00 -1.96000e+00 1.06193e+00 -5.18710e-03 1.84014e-16 
-1.44000e+00 -1.96000e+00 1.06454e+00 -5.25096e-03 5.27866e-16 
-1.42000e+00 -1.96000e+00 1.06718e+00 -5.31645e-03 6.66711e-16 
-1.40000e+00 -1.96000e+00 1.06985e+00 -5.38346e-03 1.68359e-16 
-1.38000e+00 -1.96000e+00 1.07256e+00 -5.45192e-03 7.17382e-16 
-1.36000e+00 -1.96000e+00 1.07530e+00 -5.52174e-03 1.01472e-15 
-1.34000e+00 -1.96000e+00 1.07808e+00 -5.59280e-03 7.88942e-16 
-1.32000e+00 -1.96000e+00 1.08089e+00 -5.66500e-03 2.71860e-16 
-1.30000e+00 -1.96000e+00 1.08374e+00 -5.73824e-03 5.90805e-16 
-1.28000e+00 -1.96000e+00 1.08663e+00 -5.81240e-03 9.43920e-16 
-1.26000e+00 -1.96000e+00 1.08955e+00 -5.88735e-03 7.01759e-16 
-1.24000e+00 -1.96000e+00 1.09251e+00 -5.96297e-03 7.53405e-16 
-1.22000e+00 -1.96000e+00 1.09551e+00 -6.03913e-03 9.53110e-16 
-1.20000e+00 -1.96000e+00 1.09855e+00 -6.11569e-03 4.04289e-16 
-1.18000e+00 -1.96000e+00 1.10163e+00 -6.19251e-03 8.44952e-16 
-1.16000e+00 -1.96000e+00 1.10474e+00 -6.26944e-03 7.09460e-16 
-1.14000e+00 -1.96000e+00 1.10790e+00 -6.34634e-03 1.34786e-15 
-1.12000e+00 -1.96000e+00 1.11109e+00 -6.42303e-03 1.87771e-15 
-1.10000e+00 -1.96000e+00 1.11432e+00 -6.49936e-03 1.91580e-15 
-1.08000e+00 -1.96000e+00 1.11759e+00 -6.57516e-03 1.71684e-15 
-1.06000e+00 -1.96000e+00 1.12090e+00 -6.65026e-03 2.29769e-15 
-1.04000e+00 -1.96000e+00 1.12424e+00 -6.72449e-03 2.40289e-15 
-1.02000e+00 -1.96000e+00 1.12762e+00 -6.79765e-03 2.99898e-15 
-1.00000e+00 -1.96000e+00 1.13104e+00 -6.86956e-03 2.49947e-15 
-9.80000e-01 -1.96000e+00 1.13450e+00 -6.94004e-03 2.70327e-15 
-9.60000e-01 -1.96000e+00 1.13798e+00 -7.00890e-03 2.88225e-15 
-9.40000e-01 -1.96000e+00 1.14151e+00 -7.07592e-03 2.61609e-15 
-9.20000e-01 -1.96000e+00 1.14506e+00 -7.14093e-03 1.89142e-15 
-9.00000e-01 -1.96000e+00 1.14865e+00 -7.20370e-03 1.87479e-15 
-8.80000e-01 -1.96000e+00 1.15227e+00 -7.26405e-03 1.40825e-15 
-8.60000e-01 -1.96000e+00 1.15592e+00 -7.32177e-03 9.24372e-16 
-8.40000e-01 -1.96000e+00 1.15960e+00 -7.37664e-03 3.56759e-16 
-8.20000e-01 -1.96000e+00 1.16330e+00 -7.42847e-03 -2.58338e-16 
-8.00000e-01 -1.96000e+00 1.16703e+00 -7.47704e-03 -1.70829e-16 
-7.80000e-01 -1.96000e+00 1.17078e+00 -7.52216e-03 -2.91200e-16 
-7.60000e-01 -1.96000e+00 1.17456e+00 -7.56361e-03 -1.07031e-15 
-7.40000e-01 -1.96000e+00 1.17835e+00 -7.60119e-03 -8.39154e-16 
-7.20000e-01 -1.96000e+00 1.18217e+00 -7.63470e-03 1.15257e-16 
-7.00000e-01 -1.96000e+00 1.18599e+00 -7.66395e-03 6.77042e-16 
-6.80000e-01 -1.96000e+00 1.18984e+00 -7.68875e-03 1.06699e-15 
-6.60000e-01 -1.96000e+00 1.19369e+00 -7.70889e-03 7.37318e-16 
-6.40000e-01 -1.96000e+00 1.19755e+00 -7.72420e-03 9.66872e-16 
-6.20000e-01 -1.96000e+00 1.20142e+00 -7.73450e-03 9.81009e-16 
-6.00000e-01 -1.96000e+00 1.20529e+00 -7.73962e-03 1.64832e-15 
-5.80000e-01 -1.96000e+00 1.20917e+00 -7.73939e-03 1.58985e-15 
-5.60000e-01 -1.96000e+00 1.21304e+00 -7.73365e-03 1.77260e-15 
-5.40000e-01 -1.96000e+00 1.21691e+00 -7.72227e-03 1.07651e-15 
-5.20000e-01 -1.96000e+00 1.22077e+00 -7.70509e-03 9.02460e-16 
-5.00000e-01 -1.96000e+00 1.22463e+00 -7.68199e-03 7.25775e-16 
-4.80000e-01 -1.96000e+00 1.22846e+00 -7.65285e-03 6.88793e-16 
-4.60000e-01 -1.96000e+00 1.23229e+00 -7.61756e-03 5.45695e-16 
-4.40000e-01 -1.96000e+00 1.23609e+00 -7.57603e-03 1.35131e-15 
-4.20000e-01 -1.96000e+00 1.23987e+00 -7.52816e-03 4.82030e-16 
-4.00000e-01 -1.96000e+00 1.24363e+00 -7.47388e-03 1.83867e-16 
-3.80000e-01 -1.96000e+00 1.24736e+00 -7.41313e-03 4.85706e-16 
-3.60000e-01 -1.96000e+00 1.25105e+00 -7.34587e-03 -1.71730e-15 
-3.40000e-01 -1.96000e+00 1.25471e+00 -7.27205e-03 -1.39921e-15 
-3.20000e-01 -1.96000e+00 1.25833e+00 -7.19165e-03 1.18758e-17 
-3.00000e-01 -1.96000e+00 1.26191e+00 -7.10466e-03 4.53801e-17 
-2.80000e-01 -1.96000e+00 1.26545e+00 -7.01109e-03 7.88854e-17 
-2.60000e-01 -1.96000e+00 1.26893e+00 -6.91095e-03 1.52761e-15 
-2.40000e-01 -1.96000e+00 1.27237e+00 -6.80426e-03 2.39097e-15 
-2.20000e-01 -1.96000e+00 1.27575e+00 -6.69108e-03 4.16200e-15 
-2.00000e-01 -1.96000e+00 1.27907e+00 -6.57145e-03 3.48176e-15 
-1.80000e-01 -1.96000e+00 1.28233e+00 -6.44544e-03 3.98580e-15 
-1.60000e-01 -1.96000e+00 1.28552e+00 -6.31313e-03 3.89627e-15 
-1.40000e-01 -1.96000e+00 1.28865e+00 -6.17461e-03 4.26911e-15 
-1.20000e-01 -1.96000e+00 1.29171e+00 -6.02998e-03 5.35996e-15 
-1.00000e-01 -1.96000e+00 1.29469e+00 -5.87934e-03 6.30459e-15 
-8.00000e-02 -1.96000e+00 1.29760e+00 -5.72283e-03 5.88096e-15 
-6.00000e-02 -1.96000e+00 1.30042e+00 -5.56056e-03 5.12509e-15 
-4.00000e-02 -1.96000e+00 1.30317e+00 -5.39268e-03 6.32222e-15 
-2.00000e-02 -1.96000e+00 1.30582e+00 -5.21934e-03 5.59045e-15 
0.00000e+00 -1.96000e+00 1.30839e+00 -5.04068e-03 6.45242e-15 
2.00000e-02 -1.96000e+00 1.31087e+00 -4.85688e-03 5.63575e-15 
4.00000e-02 -1.96000e+00 1.31326e+00 -4.66808e-03 5.89017e-15 
6.00000e-02 -1.96000e+00 1.31555e+00 -4.47448e-03 5.28450e-15 
8.00000e-02 -1.96000e+00 1.31774e+00 -4.27624e-03 4.34525e-15 
1.00000e-01 -1.96000e+00 1.31983e+00 -4.07353e-03 3.70590e-15 
1.20000e-01 -1.96000e+00 1.32182e+00 -3.86655e-03 4.01586e-15 
1.40000e-01 -1.96000e+00 1.32370e+00 -3.65548e-03 3.27078e-15 
1.60000e-01 -1.96000e+00 1.32548e+00 -3.44049e-03 3.48741e-15 
1.80000e-01 -1.96000e+00 1.32715e+00 -3.22179e-03 3.35522e-15 
2.00000e-01 -1.96000e+00 1.32871e+00 -2.99955e-03 2.91203e-15 
2.20000e-01 -1.96000e+00 1.33015e+00 -2.77395e-03 2.89576e-15 
2.40000e-01 -1.96000e+00 1.33149e+00 -2.54520e-03 2.67913e-15 
2.60000e-01 -1.96000e+00 1.33270e+00 -2.31346e-03 2.60610e-15 
2.80000e-01 -1.96000e+00 1.33380e+00 -2.07893e-03 1.87695e-15 
3.00000e-01 -1.96000e+00 1.33479e+00 -1.84177e-03 1.08067e-15 
3.20000e-01 -1.96000e+00 1.33565e+00 -1.60217e-03 7.73494e-16 
3.40000e-01 -1.96000e+00 1.33639e+00 -1.36029e-03 9.23933e-16 
3.60000e-01 -1.96000e+00 1.33701e+00 -1.11632e-03 4.64896e-16 
3.80000e-01 -1.96000e+00 1.33751e+00 -8.70403e-04 4.68723e-16 
4.00000e-01 -1.96000e+00 1.33789e+00 -6.22717e-04 1.25266e-16 
4.20000e-01 -1.96000e+00 1.33814e+00 -3.73415e-04 -3.43687e-16 
4.40000e-01 -1.96000e+00 1.33826e+00 -1.22652e-04 -1.20711e-16 
4.60000e-01 -1.96000e+00 1.33826e+00 1.29424e-04 -5.94556e-16 
4.80000e-01 -1.96000e+00 1.33813e+00 3.82665e-04 8.34388e-17 
5.00000e-01 -1.96000e+00 1.33788e+00 6.36931e-04 3.36214e-16 
5.20000e-01 -1.96000e+00 1.33750e+00 8.92084e-04 6.59644e-16 
5.40000e-01 -1.96000e+00 1.33699e+00 1.14799e-03 7.97658e-16 
5.60000e-01 -1.96000e+00 1.33635e+00 1.40452e-03 8.60217e-16 
5.80000e-01 -1.96000e+00 1.33558e+00 1.66154e-03 1.15698e-15 
6.00000e-01 -1.96000e+00 1.33469e+00 1.91894e-03 4.07747e-16 
6.20000e-01 -1.96000e+00 1.33367e+00 2.17660e-03 6.87820e-16 
6.40000e-01 -1.96000e+00 1.33251e+00 2.43439e-03 1.42162e-15 
6.60000e-01 -1.96000e+00 1.33123e+00 2.69221e-03 1.89891e-15 
6.80000e-01 -1.96000e+00 1.32982e+00 2.94994e-03 1.22188e-15 
7.00000e-01 -1.96000e+00 1.32828e+00 3.20747e-03 1.25377e-15 
7.20000e-01 -1.96000e+00 1.32661e+00 3.46469e-03 7.81682e-16 
7.40000e-01 -1.96000e+00 1.32482e+00 3.72151e-03 1.88625e-16 
7.60000e-01 -1.96000e+00 1.32289e+00 3.97781e-03 2.29822e-16 
7.80000e-01 -1.96000e+00 1.32084e+00 4.23350e-03 2.51377e-16 
8.00000e-01 -1.96000e+00 1.31866e+00 4.48846e-03 4.03413e-16 
8.20000e-01 -1.96000e+00 1.31635e+00 4.74260e-03 3.77540e-16 
8.40000e-01 -1.96000e+00 1.31391e+00 4.99581e-03 6.08841e-16 
8.60000e-01 -1.96000e+00 1.31135e+00 5.24800e-03 7.85460e-16 
8.80000e-01 -1.96000e+00 1.30866e+00 5.49906e-03 1.10442e-15 
9.00000e-01 -1.96000e+00 1.30585e+00 5.74888e-03 1.70640e-15 
9.20000e-01 -1.96000e+00 1.30291e+00 5.99737e-03 2.99467e-15 
9.40000e-01 -1.96000e+00 1.29985e+00 6.24441e-03 4.46748e-15 
9.60000e-01 -1.96000e+00 1.29666e+00 6.48991e-03 6.07351e-15 
9.80000e-01 -1.96000e+00 1.29336e+00 6.73376e-03 7.75413e-15 
1.00000e+00 -1.96000e+00 1.28993e+00 6.97585e-03 1.04364e-14 
1.02000e+00 -1.96000e+00 1.28638e+00 7.21606e-03 1.43864e-14 
1.04000e+00 -1.96000e+00 1.28271e+00 7.45429e-03 1.83960e-14 
1.06000e+00 -1.96000e+00 1.27892e+00 7.69043e-03 2.36569e-14 
1.08000e+00 -1.96000e+00 1.27502e+00 7.92436e-03 3.02285e-14 
1.10000e+00 -1.96000e+00 1.27099e+00 8.15596e-03 3.86852e-14 
1.12000e+00 -1.96000e+00 1.26686e+00 8.38511e-03 4.88221e-14 
1.14000e+00 -1.96000e+00 1.26260e+00 8.61170e-03 6.11990e-14 
1.16000e+00 -1.96000e+00 1.25824e+00 8.83561e-03 7.69709e-14 
1.18000e+00 -1.96000e+00 1.25376e+00 9.05670e-03 9.48957e-14 
1.20000e+00 -1.96000e+00 1.24918e+00 9.27486e-03 1.16851e-13 
1.22000e+00 -1.96000e+00 1.24449e+00 9.48996e-03 1.44434e-13 
1.24000e+00 -1.96000e+00 1.23968e+00 9.70187e-03 1.78087e-13 
1.26000e+00 -1.96000e+00 1.23478e+00 9.91046e-03 2.17789e-13 
1.28000e+00 -1.96000e+00 1.22977e+00 1.01156e-02 2.64825e-13 
1.30000e+00 -1.96000e+00 1.22466e+00 1.03172e-02 3.21736e-13 
1.32000e+00 -1.96000e+00 1.21945e+00 1.05150e-02 3.89301e-13 
1.34000e+00 -1.96000e+00 1.21414e+00 1.07090e-02 4.69196e-13 
1.36000e+00 -1.96000e+00 1.20873e+00 1.08991e-02 5.62778e-13 
1.38000e+00 -1.96000e+00 1.20323e+00 1.10850e-02 6.72414e-13 
1.40000e+00 -1.96000e+00 1.19764e+00 1.12667e-02 7.99859e-13 
1.42000e+00 -1.96000e+00 1.19196e+00 1.14440e-02 9.48225e-13 
1.44000e+00 -1.96000e+00 1.18619e+00 1.16167e-02 1.12086e-12 
1.46000e+00 -1.96000e+00 1.18033e+00 1.17849e-02 1.31969e-12 
1.48000e+00 -1.96000e+00 1.17440e+00 1.19483e-02 1.54935e-12 
1.50000e+00 -1.96000e+00 1.16838e+00 1.21067e-02 1.81237e-12 
1.52000e+00 -1.96000e+00 1.16228e+00 1.22602e-02 2.11347e-12 
1.54000e+00 -1.96000e+00 1.15611e+00 1.24085e-02 2.45652e-12 
1.56000e+00 -1.96000e+00 1.14987e+00 1.25515e-02 2.84599e-12 
1.58000e+00 -1.96000e+00 1.14355e+00 1.26891e-02 3.28781e-12 
1.60000e+00 -1.96000e+00 1.13717e+00 1.28212e-02 3.78522e-12 
1.62000e+00 -1.96000e+00 1.13072e+00 1.29477e-02 4.34572e-12 
1.64000e+00 -1.96000e+00 1.12421e+00 1.30684e-02 4.97336e-12 
1.66000e+00 -1.96000e+00 1.11764e+00 1.31832e-02 5.67518e-12 
1.68000e+00 -1.96000e+00 1.11102e+00 1.32921e-02 6.45736e-12 
1.70000e+00 -1.96000e+00 1.10434e+00 1.33949e-02 7.32661e-12 
1.72000e+00 -1.96000e+00 1.09762e+00 1.34916e-02 8.28910e-12 
1.74000e+00 -1.96000e+00 1.09084e+00 1.35820e-02 9.35278e-12 
1.76000e+00 -1.96000e+00 1.08402e+00 1.36661e-02 1.05243e-11 
1.78000e+00 -1.96000e+00 1.07717e+00 1.37438e-02 1.18107e-11 
1.80000e+00 -1.96000e+00 1.07027e+00 1.38150e-02 1.32191e-11 
1.82000e+00 -1.96000e+00 1.06334e+00 1.38796e-02 1.47573e-11 
1.84000e+00 -1.96000e+00 1.05638e+00 1.39376e-02 1.64317e-11 
1.86000e+00 -1.96000e+00 1.04939e+00 1.39889e-02 1.82495e-11 
1.88000e+00 -1.96000e+00 1.04238e+00 1.40335e-02 2.02179e-11 
1.90000e+00 -1.96000e+00 1.03535e+00 1.40713e-02 2.23431e-11 
1.92000e+00 -1.96000e+00 1.02830e+00 1.41022e-02 2.46319e-11 
1.94000e+00 -1.96000e+00 1.02124e+00 1.41264e-02 2.70869e-11 
1.96000e+00 -1.96000e+00 1.01416e+00 1.41436e-02 2.97100e-11 
1.98000e+00 -1.96000e+00 1.00708e+00 1.41540e-02 3.25328e-11 
-1.98000e+00 -1.94000e+00 1.00214e+00 -6.42297e-03 5.70146e-17 
-1.96000e+00 -1.94000e+00 1.00427e+00 -6.42886e-03 -9.74547e-17 
-1.94000e+00 -1.94000e+00 1.00641e+00 -6.43866e-03 -6.54597e-17 
-1.92000e+00 -1.94000e+00 1.00856e+00 -6.45238e-03 5.38929e-17 
-1.90000e+00 -1.94000e+00 1.01071e+00 -6.47001e-03 -2.14504e-16 
-1.88000e+00 -1.94000e+00 1.01286e+00 -6.49152e-03 4.54708e-17 
-1.86000e+00 -1.94000e+00 1.01503e+00 -6.51690e-03 4.20565e-16 
-1.84000e+00 -1.94000e+00 1.01720e+00 -6.54613e-03 3.43873e-16 
-1.82000e+00 -1.94000e+00 1.01938e+00 -6.57919e-03 1.78809e-16 
-1.80000e+00 -1.94000e+00 1.02158e+00 -6.61605e-03 6.06755e-16 
-1.78000e+00 -1.94000e+00 1.02379e+00 -6.65668e-03 4.61520e-16 
-1.76000e+00 -1.94000e+00 1.02601e+00 -6.70105e-03 6.74139e-16 
-1.74000e+00 -1.94000e+00 1.02825e+00 -6.74911e-03 -3.61601e-16 
-1.72000e+00 -1.94000e+00 1.03050e+00 -6.80083e-03 -2.04887e-16 
-1.70000e+00 -1.94000e+00 1.03277e+00 -6.85615e-03 -2.25828e-16 
-1.68000e+00 -1.94000e+00 1.03506e+00 -6.91504e-03 -4.13129e-16 
-1.66000e+00 -1.94000e+00 1.03737e+00 -6.97743e-03 -6.04544e-17 
-1.64000e+00 -1.94000e+00 1.03971e+00 -7.04326e-03 -2.94471e-16 
-1.62000e+00 -1.94000e+00 1.04206e+00 -7.11248e-03 4.86153e-17 
-1.60000e+00 -1.94000e+00 1.04444e+00 -7.18500e-03 3.67388e-16 
-1.58000e+00 -1.94000e+00 1.04685e+00 -7.26077e-03 1.68783e-16 
-1.56000e+00 -1.94000e+00 1.04928e+00 -7.33969e-03 -1.08151e-16 
-1.54000e+00 -1.94000e+00 1.05173e+00 -7.42169e-03 1.21148e-16 
-1.52000e+00 -1.94000e+00 1.05422e+00 -7.50667e-03 6.12375e-16 
-1.50000e+00 -1.94000e+00 1.05673e+00 -7.59454e-03 3.20893e-16 
-1.48000e+00 -1.94000e+00 1.05927e+00 -7.68520e-03 -8.64377e-16 
-1.46000e+00 -1.94000e+00 1.06185e+00 -7.77853e-03 -6.25782e-16 
-1.44000e+00 -1.94000e+00 1.06445e+00 -7.87442e-03 3.09564e-16 
-1.42000e+00 -1.94000e+00 1.06709e+00 -7.97275e-03 6.95695e-16 
-1.40000e+00 -1.94000e+00 1.06976e+00 -8.07339e-03 5.49906e-17 
-1.38000e+00 -1.94000e+00 1.07247e+00 -8.17620e-03 6.42335e-16 
-1.36000e+00 -1.94000e+00 1.07521e+00 -8.28104e-03 1.06870e-15 
-1.34000e+00 -1.94000e+00 1.07799e+00 -8.38777e-03 8.37113e-16 
-1.32000e+00 -1.94000e+00 1.08080e+00 -8.49621e-03 2.48036e-16 
-1.30000e+00 -1.94000e+00 1.08365e+00 -8.60621e-03 7.43668e-16 
-1.28000e+00 -1.94000e+00 1.08653e+00 -8.71760e-03 1.20404e-15 
-1.26000e+00 -1.94000e+00 1.08946e+00 -8.83018e-03 9.31616e-16 
-1.24000e+00 -1.94000e+00 1.09242e+00 -8.94378e-03 9.23740e-16 
-1.22000e+00 -1.94000e+00 1.09542e+00 -9.05819e-03 1.42605e-15 
-1.20000e+00 -1.94000e+00 1.09846e+00 -9.17321e-03 8.92173e-16 
-1.18000e+00 -1.94000e+00 1.10153e+00 -9.28863e-03 1.56092e-15 
-1.16000e+00 -1.94000e+00 1.10465e+00 -9.40422e-03 1.47123e-15 
-1.14000e+00 -1.94000e+00 1.10780e+00 -9.51975e-03 2.04602e-15 
-1.12000e+00 -1.94000e+00 1.11100e+00 -9.63500e-03 2.86456e-15 
-1.10000e+00 -1.94000e+00 1.11423e+00 -9.74970e-03 2.86768e-15 
-1.08000e+00 -1.94000e+00 1.11750e+00 -9.86362e-03 2.52045e-15 
-1.06000e+00 -1.94000e+00 1.12080e+00 -9.97650e-03 3.10977e-15 
-1.04000e+00 -1.94000e+00 1.12415e+00 -1.00881e-02 3.07941e-15 
-1.02000e+00 -1.94000e+00 1.12753e+00 -1.01980e-02 3.66887e-15 
-1.00000e+00 -1.94000e+00 1.13095e+00 -1.03061e-02 3.19620e-15 
-9.80000e-01 -1.94000e+00 1.13441e+00 -1.04121e-02 3.61536e-15 
-9.60000e-01 -1.94000e+00 1.13790e+00 -1.05156e-02 3.90906e-15 
-9.40000e-01 -1.94000e+00 1.14142e+00 -1.06164e-02 3.71568e-15 
-9.20000e-01 -1.94000e+00 1.14498e+00 -1.07142e-02 2.79237e-15 
-9.00000e-01 -1.94000e+00 1.14857e+00 -1.08086e-02 2.54576e-15 
-8.80000e-01 -1.94000e+00 1.15220e+00 -1.08994e-02 2.13326e-15 
-8.60000e-01 -1.94000e+00 1.15585e+00 -1.09862e-02 1.49526e-15 
-8.40000e-01 -1.94000e+00 1.15953e+00 -1.10688e-02 8.00002e-16 
-8.20000e-01 -1.94000e+00 1.16324e+00 -1.11468e-02 2.65909e-17 
-8.00000e-01 -1.94000e+00 1.16697e+00 -1.12199e-02 2.80382e-16 
-7.80000e-01 -1.94000e+00 1.17073e+00 -1.12878e-02 -2.64319e-17 
-7.60000e-01 -1.94000e+00 1.17451e+00 -1.13502e-02 -9.35060e-16 
-7.40000e-01 -1.94000e+00 1.17831e+00 -1.14069e-02 -6.45755e-16 
-7.20000e-01 -1.94000e+00 1.18213e+00 -1.14574e-02 4.92984e-16 
-7.00000e-01 -1.94000e+00 1.18596e+00 -1.15015e-02 1.20874e-15 
-6.80000e-01 -1.94000e+00 1.18981e+00 -1.15389e-02 1.58291e-15 
-6.60000e-01 -1.94000e+00 1.19367e+00 -1.15694e-02 1.24778e-15 
-6.40000e-01 -1.94000e+00 1.19754e+00 -1.15926e-02 1.59250e-15 
-6.20000e-01 -1.94000e+00 1.20141e+00 -1.16082e-02 1.42913e-15 
-6.00000e-01 -1.94000e+00 1.20529e+00 -1.16161e-02 2.18653e-15 
-5.80000e-01 -1.94000e+00 1.20917e+00 -1.16160e-02 1.94535e-15 
-5.60000e-01 -1.94000e+00 1.21305e+00 -1.16075e-02 2.25176e-15 